/*--------------------------------*- C++ -*----------------------------------*\
| =========                 |                                                 |
| \\      /  F ield         | OpenFOAM: The Open Source CFD Toolbox           |
|  \\    /   O peration     | Version:  2412                                  |
|   \\  /    A nd           | Website:  www.openfoam.com                      |
|    \\/     M anipulation  |                                                 |
\*---------------------------------------------------------------------------*/
FoamFile
{
    version     2.0;
    format      ascii;
    arch        "LSB;label=32;scalar=64";
    class       volScalarField;
    location    "1";
    object      h;
}
// * * * * * * * * * * * * * * * * * * * * * * * * * * * * * * * * * * * * * //

dimensions      [0 1 0 0 0 0 0];

internalField   nonuniform List<scalar> 
800
(
0.01
0.0099999993
0.0099996933
0.010062122
0.088335184
0.088323038
0.088324531
0.088140321
0.11294486
0.081448088
0.010187702
0.010145613
0.01014712
0.010161183
0.010161186
0.010140164
0.010127856
0.01014396
0.010158047
0.0099999996
0.010000008
0.010003869
0.011962417
0.11361891
9.9187072
9.9205378
9.9225333
9.8969283
0.012606277
0.038061832
0.11794137
0.080947496
0.082640443
0.098006184
0.098009281
0.076930713
0.066332645
0.082620205
0.097985118
0.0099999366
0.010000026
0.010168248
0.035909151
0.012640363
9.9757855
10.001403
10.001608
10.002331
9.8991252
9.9008398
0.012033361
0.039512319
0.012458744
0.010287836
0.0102478
0.013521936
0.015729063
0.012511018
0.010273384
0.0099859998
0.010001988
0.097658105
0.13582148
9.896524
10.00247
10.002452
9.9995106
10.002453
10.002391
10.002575
9.8968899
9.9309451
9.9322617
9.9168985
9.9149312
9.93552
9.9461173
9.929568
9.9105135
0.012218524
0.01002715
0.041753789
0.010340503
9.9660451
9.9978368
10.000001
10.002942
10.004903
10.00147
10.004413
10.000944
10.002274
10.004728
10.012546
10.007647
19.994834
19.989268
9.9970918
9.9984514
0.012616081
0.012627077
9.912688
9.8715946
9.9978528
9.9985297
10.004167
10.001223
19.998772
19.99142
19.994361
19.995097
9.9955877
19.993135
19.993375
19.999017
19.994362
19.992156
9.8820748
9.9134293
0.012616257
0.012627246
9.9978501
9.9970505
9.9999939
10.001226
9.9982816
19.99289
19.996567
20.004172
30.005151
29.995342
29.988232
29.983575
29.979655
19.989702
19.9983
9.9755686
0.011053939
0.039386374
0.0099987003
0.012007553
9.8796732
10.00218
10.000736
10.001225
19.992154
19.993627
29.992645
30.018144
40.008338
40.006864
30.019125
30.006128
19.997058
9.9973037
10.00269
0.01357332
0.12744738
0.095770392
0.010000461
0.039710254
0.010579758
9.8537555
9.9975479
10.000736
10.004413
19.998529
29.997793
30.006857
40.003428
40.00098
30.016179
30.006128
20.00196
10.00147
10.001483
9.9961023
0.010917363
0.012119244
0.010002657
0.010112075
0.15863402
0.010495204
9.8818345
10.000619
10.003433
19.999999
29.999017
29.987983
29.992151
29.990194
29.986023
29.990192
19.999999
10.004414
9.9987022
9.9095798
0.010635091
0.01194501
0.010002636
0.010000956
0.010300417
0.1512107
0.014276813
9.9794766
19.993381
20.00098
29.987005
29.97892
29.983085
20.0076
19.996326
19.998285
19.998283
10.005911
9.983111
0.12052593
0.03265708
0.010011881
0.010000016
0.010000009
0.010005462
0.0120027
0.099878434
9.9999445
20.005884
19.999264
19.997057
19.995096
19.996077
19.999998
19.997057
19.99534
19.999264
10.004932
9.9787803
0.10067055
0.15551661
0.010111456
0.010000205
0.010000009
0.010005038
0.01182652
0.12190392
9.9999034
20.004904
19.999509
19.998774
9.998771
9.9997521
9.992644
9.9997539
10.001225
20.00196
20.00098
10.001246
9.8661278
0.010630797
0.039659054
0.010012748
0.010000024
0.010014846
0.037788979
0.011703897
9.9739435
19.988732
19.994607
19.99436
10.004168
10.004658
9.9990189
10.002207
10.001227
19.998038
19.998038
10.001225
10.005005
9.8816831
0.010031119
0.012053194
0.010003636
0.012066991
0.010035329
9.8877731
10.001667
19.997301
19.990683
20.002206
10.008093
10.00417
9.9973034
9.9953408
19.987497
19.98284
19.990928
9.9987728
10.000489
10.000699
0.010749151
0.01194118
0.010003639
0.012064906
0.010220499
9.9976081
10.000496
10.008581
20.001223
20.002207
19.998039
19.991175
19.994115
19.999998
19.993377
19.993376
9.9977918
9.9963229
9.9933793
9.9955844
0.010762547
0.011960272
0.010003636
0.01206635
0.010237025
9.9979313
9.9997601
10.00417
10.008582
19.997793
19.994361
19.999017
20.00294
20.001227
20.004165
10.01201
10.004167
9.9950964
9.9929022
9.99662
0.11540484
0.011815223
0.01000317
0.012090626
0.010221807
9.9953389
9.9973221
9.9992654
10.00466
19.997057
19.997057
10.008581
10.008092
10.000981
10.004905
10.002473
9.9994582
9.9997579
9.9978782
0.010266684
0.010309151
0.0099739469
0.010003174
0.012090645
0.010395074
9.9328824
9.9091564
10.00043
10.001717
19.997057
19.997057
10.00466
10.00417
10.001962
10.001686
9.9070225
9.9017504
10.006515
10.005792
10.001728
9.8952241
0.012236135
0.010000007
0.0099845798
0.097970416
0.10161542
0.078245172
9.9810393
10.001005
19.996567
19.997057
10.001226
10.000735
10.002281
9.9794304
0.10429248
0.035715352
9.8808804
9.905873
9.9048122
9.9038288
0.012218182
0.0099997377
0.010101098
0.010296071
0.077461421
0.10464692
0.013355138
10.000227
19.996812
19.997057
10.001476
9.9995614
0.01220008
0.013509984
0.10479706
0.23596885
0.067045627
0.068426426
0.086626048
0.10401618
0.010032587
0.011869014
0.12958601
9.9105865
9.9328741
9.9344254
10.00123
10.001715
19.997057
19.997057
10.00368
10.003188
10.001935
10.001755
9.9022669
0.010523862
0.14082475
0.10953297
0.10623374
0.10400167
0.010033468
0.039682684
0.010921358
9.9703505
9.996726
9.9969467
10.000246
10.00368
19.997057
19.997057
10.006619
10.006131
10.000982
10.003924
10.002669
9.8776443
9.9432545
9.942103
9.9236219
9.9025771
0.012218125
0.012022922
9.8796324
10.000525
9.9995095
9.9995097
10.00319
10.00662
19.998038
19.993626
9.9977925
10.002696
10.003432
10.00539
10.01299
10.007813
19.994873
19.991438
9.9993689
10.000827
0.012616067
0.012230315
9.9977348
9.9999522
9.9975481
10.000001
10.006129
10.001223
20.003678
20.000247
19.995345
20.00098
10.001469
19.993135
19.993375
19.999017
19.994362
19.992485
9.8820725
9.9134079
0.012616257
0.012230334
9.9125872
9.8815104
9.9982861
10.000735
9.9982816
19.99289
20.003186
20.017899
20.014957
30.003184
29.994362
29.983575
29.979655
19.989702
19.998483
9.8850276
0.010934759
0.039367389
0.0099987771
0.009985333
0.040021806
0.01094798
9.9739529
10.001009
19.991664
19.995098
29.9924
30.008823
30.008333
39.991664
30.004168
30.007599
19.998529
9.9973288
9.9813756
0.014111934
0.14856954
0.095797227
0.010000443
0.010001767
0.097544936
0.1294728
10.000068
10.000492
10.003923
20.000244
29.998774
39.991662
39.991663
39.985537
30.00294
30.007599
20.003431
10.00138
9.9017496
0.10112481
0.012054162
0.010160605
0.010000008
0.01000264
0.012111935
0.010805136
9.9990348
10.000491
10.002943
19.999999
29.999017
29.991909
29.993136
29.996523
29.991909
29.990192
19.999764
9.9797882
0.11215883
0.035406323
0.010018195
0.010001236
0.01
0.010000007
0.010003488
0.011196111
0.015883841
10.000538
19.993379
20.00098
29.987005
29.98186
30.148242
20.262494
20.202193
19.998285
19.998538
9.9815024
0.11190375
0.18933486
0.010315043
0.010001014
0.01
0.010002654
0.011975452
0.01081919
9.9987532
10.000979
20.006129
19.999264
19.997057
20.010394
0.14989531
20.01674
0.001
20.015385
19.999443
10.005598
9.8621994
0.0076111394
0.16739678
0.010114255
0.010000229
0.01000317
0.01197114
0.13499744
9.9957025
10.001477
20.005149
19.998528
19.99899
8.7634219
0.001
2.7415637
0.001
8.2566704
20.00247
20.001451
10.003221
9.8168003
0.010484426
0.039757836
0.01001281
0.010014
0.041193903
0.010364121
9.9700297
10.001514
19.988928
19.996721
19.461559
0.0075753229
86.507809
0.001
27.956081
9.9929016
19.998137
19.998034
10.00318
10.00722
9.8815315
0.010030464
0.012053194
0.012087115
0.010001131
9.8711969
10.000835
10.001716
19.997301
19.990683
19.995583
10.005722
0.001
9.9896863
9.9979069
19.987611
19.982824
19.990928
9.9987725
10.002424
10.000675
0.010747949
0.01194118
0.012086551
0.01022768
9.9950275
9.9993149
10.000283
10.008299
20.001223
19.997223
19.991796
0.001
19.997302
20.003234
19.993354
19.993376
9.9977918
9.9963229
9.9933748
9.9963106
0.010722283
0.011960991
0.011952868
0.010748364
9.9278497
9.9104872
9.9136296
9.8783134
10.006733
10.006411
10.0044
10.33516
19.999167
19.998422
20.002204
10.010048
10.004167
9.9950965
9.992505
9.8710517
0.010480327
0.011961497
0.010000038
0.010062005
0.012537329
0.01021636
0.041445614
0.010298511
9.8837263
9.9187975
9.8729757
9.9954128
10.004884
10.000979
10.004904
10.002946
10.000002
9.9994677
9.8832699
0.010140894
0.041297632
0.010014
0.010000006
0.010000154
0.082621274
0.098777294
0.095752455
0.13464139
0.010083162
0.043251048
0.0096017139
9.862447
10.005132
10.005036
10.004552
10.001609
10.00167
9.8788681
0.014316807
0.15732822
0.010114757
0.010000232
0.0099999999
0.010000001
0.010145574
0.010162355
0.010155046
0.010197579
0.098005691
0.095784734
0.16791972
0.012250693
9.8967644
9.9225348
9.9227401
9.9225334
9.896939
0.012322713
0.12318606
0.010294391
0.010002854
0.0099999999
0.01
0.01
0.010001126
0.010001289
0.010005139
0.010005318
0.01016118
0.010159561
0.010295719
0.11392756
0.088128813
0.088324844
0.088324341
0.08832453
0.088104759
0.11306645
0.010255759
0.010002562
0.01
0.01
)
;

boundaryField
{
    west
    {
        type            zeroGradient;
    }
    east
    {
        type            zeroGradient;
    }
    south
    {
        type            zeroGradient;
    }
    north
    {
        type            zeroGradient;
    }
    front
    {
        type            empty;
    }
    back
    {
        type            empty;
    }
}


// ************************************************************************* //
