/*--------------------------------*- C++ -*----------------------------------*\
| =========                 |                                                 |
| \\      /  F ield         | OpenFOAM: The Open Source CFD Toolbox           |
|  \\    /   O peration     | Version:  2412                                  |
|   \\  /    A nd           | Website:  www.openfoam.com                      |
|    \\/     M anipulation  |                                                 |
\*---------------------------------------------------------------------------*/
FoamFile
{
    version     2.0;
    format      ascii;
    arch        "LSB;label=32;scalar=64";
    class       volVectorField;
    location    "1";
    object      hU;
}
// * * * * * * * * * * * * * * * * * * * * * * * * * * * * * * * * * * * * * //

dimensions      [0 2 -1 0 0 0 0];

internalField   nonuniform List<vector> 
800
(
(-0.00031898645 2.0111002e-08 0)
(-0.0003189825 2.9823204e-08 0)
(-0.00031894317 -6.1558721e-06 0)
(-0.032478801 -0.25996607 0)
(411.68204 1337267.8 0)
(419.36693 1336606.3 0)
(419.31295 1336446.4 0)
(432.90543 1346141.6 0)
(1266.0305 -2531.7912 0)
(-2.8254112 -1454.6968 0)
(-0.54796665 1.0930786 0)
(0.00027651078 0.61891868 0)
(-0.00014460483 0.55180973 0)
(-4.0753628e-05 0.87615552 0)
(-1.8815743e-05 0.87599972 0)
(-0.00061403195 0.4525901 0)
(-0.00051432812 0.30354118 0)
(-0.00013888377 0.55088567 0)
(-4.1982834e-05 0.87357981 0)
(-0.00031896869 2.9882109e-08 0)
(-0.00031895068 1.896736e-08 0)
(0.0013002129 5.8378971e-05 0)
(-7.9493439 -0.068910185 0)
(6238.836 -2483.6738 0)
(1.9123231 1037.3223 0)
(0.3258504 1039.0619 0)
(0.32699305 1042.7921 0)
(-78.850492 1204.1709 0)
(-164118.39 328074.46 0)
(702.81702 197534.25 0)
(1439.2686 -2877.3393 0)
(-1.3672653 -1430.2555 0)
(-0.39564183 -1291.794 0)
(-0.69069262 -2216.937 0)
(-0.7077597 -2216.5921 0)
(0.69482674 -1023.6831 0)
(0.40984375 -641.52986 0)
(-0.42611116 -1291.5005 0)
(-0.70637449 -2215.3146 0)
(-0.0003190206 2.945733e-06 0)
(-0.00031872297 5.303221e-07 0)
(0.033269992 1.0652159 0)
(-318.10667 -635.7008 0)
(164304.33 328667.21 0)
(79.200755 165.3058 0)
(0.00075577865 3.7790753 0)
(-0.00075720429 -1.9620113 0)
(-0.0006481562 -1.9620894 0)
(-321.81079 638.19021 0)
(-88.307856 540.7985 0)
(-193347.67 386650.92 0)
(547.32426 193976.42 0)
(46.587705 151752.2 0)
(95.591655 306370.47 0)
(97.504849 306255.28 0)
(-76.171548 111925.01 0)
(-39.417795 61621.703 0)
(49.972036 151774.15 0)
(97.599553 306085.12 0)
(-0.00036002031 0.088673999 0)
(0.00074140369 -0.00012783497 0)
(-9.7350145 -2518.4209 0)
(5743.4758 -4251.5723 0)
(321.5847 637.75567 0)
(0.018648379 -1.962046 0)
(-0.9813415 -1.9623915 0)
(-0.98098117 -1.9617347 0)
(-0.00043281847 -1.9640369 0)
(-0.00033924191 -1.9637632 0)
(-0.00085750177 -0.0016454633 0)
(-362.66521 722.05911 0)
(0.34652452 358.35138 0)
(0.10204133 323.38404 0)
(0.17485069 552.39364 0)
(0.1722275 552.31066 0)
(-0.1793938 256.53767 0)
(0.86973852 160.18282 0)
(1.0861195 323.31623 0)
(-0.079982325 550.7552 0)
(-881.6662 -0.029895309 0)
(0.11710106 -0.55530685 0)
(-288.86821 414971.5 0)
(331665.49 662792.9 0)
(137.032 272.83553 0)
(-0.00048027446 -1.9609757 0)
(-0.00070830452 -1.9618819 0)
(-0.0017383323 -1.9642458 0)
(-0.0014338675 -4.9058568 0)
(-0.00073261017 -4.9030655 0)
(-0.98145208 -4.9047551 0)
(-0.9804262 -4.9027446 0)
(-0.00044385653 -1.964547 0)
(0.979293 -4.9056167 0)
(0.98157582 -4.9113839 0)
(-1.4709238 -2.9446264 0)
(-1.4707306 -2.9407426 0)
(1.4700925 -2.9395504 0)
(-1.2431293 -9.3252339 0)
(0.78966671 -0.14404634 0)
(-718.09656 -0.0087174443 0)
(727.11108 0.0026296398 0)
(-0.37890828 626.56764 0)
(541.90652 1084.0136 0)
(-0.00024429836 -8.4151035e-05 0)
(-0.00058047086 -0.0001844978 0)
(-0.98286411 -1.9646981 0)
(-2.4522128 -4.9026857 0)
(-1.4702871 -6.8645675 0)
(-0.00011111326 -2.9417343 0)
(-0.00094985185 -3.9230902 0)
(1.4699689 -3.9216517 0)
(-0.00083560205 -5.8804205 0)
(-1.4721322 -7.8400605 0)
(1.9595932 -11.759603 0)
(1.9621739 -6.8641927 0)
(0.00019548253 -0.00066630859 0)
(1.4703406 2.9397552 0)
(-433.88529 -868.915 0)
(0.80727372 -625.72121 0)
(-718.08601 -0.0026066522 0)
(727.11788 0.0088103726 0)
(0.5720195 -1.3153607 0)
(3.3972419 10.710368 0)
(-0.00049200982 -0.00018407917 0)
(-0.98156996 -0.00067379819 0)
(-2.4518761 -4.901091 0)
(-1.4712534 -2.9403446 0)
(1.9608237 -4.9027866 0)
(1.4711419 2.9385223 0)
(-2.4525827 -0.0026796165 0)
(-2.9411949 -0.0024545601 0)
(-2.9408582 3.9164193 0)
(-2.9406911 0.97758302 0)
(2.4499579 0.0003607903 0)
(4.4102827 -0.97961413 0)
(3.4320649 2.9405196 0)
(-110.08295 -219.02309 0)
(-250746.52 -500127.05 0)
(460.56256 -414105.52 0)
(-0.00032156213 -0.014141361 0)
(896.44311 0.034147155 0)
(469.52325 -937.01971 0)
(-0.98130025 1.9618454 0)
(-0.981553 0.00023598837 0)
(-2.4523999 0.00018638107 0)
(-3.432163 0.00015129784 0)
(-2.4520186 -0.00057796744 0)
(3.4291609 -4.9033158 0)
(2.4525576 -4.9100861 0)
(-3.4329204 -6.8678509 0)
(3.4328012 0.97882196 0)
(0.48969742 5.8830417 0)
(-3.4321143 5.8828963 0)
(1.9624009 4.8999383 0)
(2.4513025 2.9402682 0)
(1.1404563 2.9429067 0)
(-249.79554 -0.018053425 0)
(1762.0173 3501.6591 0)
(-0.12305404 2517.2023 0)
(-0.00032048089 4.4831376e-06 0)
(-472.26844 943.76398 0)
(274055.69 -547738.68 0)
(590.39792 -1180.0678 0)
(-0.98085393 -0.00030958429 0)
(-0.98179451 0.00049331659 0)
(-2.453205 2.941995 0)
(-3.9234255 -0.0006309758 0)
(0.48897268 -0.002061777 0)
(2.4503798 -11.77047 0)
(0.48988952 -8.8294129 0)
(3.4306098 -8.8247333 0)
(0.48838164 -11.771219 0)
(-3.4327261 -5.8832021 0)
(1.962213 0.00019627639 0)
(2.4525312 1.9620478 0)
(0.98120151 0.001100712 0)
(1.1446791 0.97676217 0)
(-678.70752 -4.34163 0)
(2.4567909 -0.99298362 0)
(-0.00075822067 -1.2776845e-06 0)
(0.21671451 -0.40067818 0)
(-2278.406 4551.9479 0)
(276859.17 -552255.73 0)
(329.39675 -657.58744 0)
(-0.9815062 -0.00048014552 0)
(-2.4535067 -2.9413901 0)
(-3.9238469 -0.00023022142 0)
(-2.4524084 -5.8836184 0)
(-0.00069003679 -11.758467 0)
(0.00074213654 -10.781144 0)
(0.0004575571 0.00089726203 0)
(-0.00081855402 -6.8570413 0)
(2.4500821 -0.97891405 0)
(5.8839869 2.0080415e-05 0)
(2.4534138 1.961919 0)
(0.98073694 1.9609663 0)
(-483.95195 -969.42115 0)
(-679.94676 0.04331383 0)
(2.437283 -0.00027070058 0)
(-0.00075410186 4.7132049e-08 0)
(-0.00027235264 -9.2895957e-05 0)
(0.9133536 -1.8261111 0)
(-2030.4925 4051.1817 0)
(96196.792 -191980.27 0)
(50.164695 -108.00229 0)
(-3.4327902 0.9796974 0)
(-4.4141573 0.00024054773 0)
(-5.3913998 -0.97913967 0)
(3.067927e-06 -0.97991567 0)
(5.3895979 -0.98013447 0)
(4.4136327 0.9775178 0)
(0.00060959102 0.97896642 0)
(-0.00043542171 0.97975272 0)
(3.4322495 -4.9636441e-05 0)
(3.4342855 -0.0006619832 0)
(-119.86801 -241.44546 0)
(-491578.1 -988574.06 0)
(480.18874 965.76385 0)
(-0.054692811 -0.10907833 0)
(-0.00031897044 1.971812e-08 0)
(-0.00031893912 5.5317375e-09 0)
(0.0013820969 -0.00031785991 0)
(-4.7247001 -1.5447171 0)
(3275.2777 1660.3048 0)
(-0.35036324 -0.0062282767 0)
(-3.4343289 3.9232205 0)
(-3.9234181 0.00085414279 0)
(-1.9615511 4.9017956 0)
(-4.9125641e-05 3.9190433 0)
(0.00016417359 3.9198522 0)
(-0.00051640309 -4.9028224 0)
(-0.00012505018 -0.98128581 0)
(1.9608088 -0.98104374 0)
(5.3940256 -0.0007304656 0)
(3.4334621 -2.9426297 0)
(-241.64907 485.91661 0)
(-1403313.3 2815708.2 0)
(2769.5934 -5548.4959 0)
(-0.48402866 0.93996824 0)
(-0.00032082216 3.6619167e-06 0)
(-0.00031894621 1.9028672e-08 0)
(0.00095930174 1.7918131e-05 0)
(-5.5612564 -0.075398387 0)
(2627.2356 -3038.6188 0)
(-0.33143124 0.021485314 0)
(-3.4347395 -3.9219284 0)
(-3.9237279 0.00082014324 0)
(-2.452315 0.0016677629 0)
(0.48995687 2.9414623 0)
(-1.883436e-05 2.941775 0)
(0.97996258 0.98110876 0)
(0.98040778 2.9417406 0)
(-0.49056614 2.9421811 0)
(2.4522289 -0.00014602998 0)
(3.4329798 -2.9427734 0)
(2.4520725 -1.962057 0)
(-1079.4514 2167.7527 0)
(-273143.85 546638.2 0)
(470.25894 -940.99855 0)
(-0.045667057 0.090751225 0)
(-0.00031869987 5.5186147e-07 0)
(0.039681343 0.077925499 0)
(-388.29811 -775.03247 0)
(211569.65 422206.06 0)
(95.741961 196.99649 0)
(-3.4315302 0.00085503751 0)
(-1.9621378 0.0013179761 0)
(-0.49121548 3.9216834 0)
(1.470891 3.9246964 0)
(-0.98088386 3.9253855 0)
(0.00017228321 1.9614886 0)
(0.98088882 0.00091231152 0)
(-0.49078802 -2.9411216 0)
(2.4515201 -3.9213352 0)
(3.4324031 -3.9223847 0)
(2.4520596 -1.9623161 0)
(0.98144347 -1.9634407 0)
(-469.44186 938.11514 0)
(-827.41967 -0.033295961 0)
(2.8319023 5.8261992e-05 0)
(-0.00062416856 2.1490057e-06 0)
(-2.8711223 -0.013452291 0)
(838.01159 3.3681485 0)
(385.5998 768.45686 0)
(-1.4717475 0.00075097819 0)
(-3.4322653 6.8627011 0)
(-1.9611339 3.9203314 0)
(1.470387 3.9237174 0)
(1.4715843 -0.9797394 0)
(-0.98143133 -0.97861044 0)
(-0.98074435 0.98141081 0)
(-1.4703123 0.97993499 0)
(-1.4700627 0.98000283 0)
(1.9596908 -0.00030661676 0)
(3.4305729 -0.98017705 0)
(2.4506798 -1.9609561 0)
(1.9611522 -3.9230974 0)
(0.79282112 -1.9596962 0)
(-675.31588 2.6601422 0)
(2.4285656 -0.0094665542 0)
(-0.00062539247 1.0095594e-07 0)
(-2.8632449 -8.1581837e-05 0)
(833.56714 0.024205514 0)
(1.3664184 2.2136864 0)
(-0.00068080881 0.00022721732 0)
(-1.4727775 2.9452653 0)
(-3.4326534 6.8645455 0)
(-1.9617922 0.00076108224 0)
(0.00030868961 -2.9412305 0)
(-0.00027417649 0.97989209 0)
(1.9598945 4.9014133 0)
(-0.0008409935 4.9041533 0)
(-1.9609623 7.8415229 0)
(1.4710426 10.780477 0)
(1.4712372 4.9012268 0)
(-0.00010862564 0.00047075435 0)
(0.97967663 -1.9595978 0)
(0.67758074 -1.960055 0)
(-681.1001 3.3154581 0)
(2.4632038 -0.010277529 0)
(-0.00062585547 6.8061132e-07 0)
(-2.8634237 0.0018156431 0)
(834.03004 0.015962724 0)
(0.25776881 0.00016847172 0)
(-0.00044768158 0.00023898873 0)
(-0.00097893865 0.0012596789 0)
(-2.453726 2.9447966 0)
(-3.4325485 0.00070322889 0)
(1.9610662 6.9334878e-06 0)
(1.9608665 6.8629936 0)
(0.0011375976 6.8661348 0)
(-3.1710902e-05 2.9435636 0)
(1.4699317 6.8680069 0)
(1.4721175 4.9105531 0)
(-0.98011922 1.9646158 0)
(-0.98027717 1.9603194 0)
(0.97996608 1.959503 0)
(-0.00037102286 0.99054486 0)
(-3357.4335 -4070.4934 0)
(5.1237696 -0.037356135 0)
(0.00029912996 5.6221958e-07 0)
(-2.9162813 0.001816197 0)
(849.09417 0.016061507 0)
(0.27145563 -0.00022961886 0)
(-0.00039025054 -0.00028826049 0)
(-0.0007412778 0.00019188799 0)
(-2.4536369 0.0010128499 0)
(-3.4328081 0.00031215761 0)
(3.43204 -0.00071293852 0)
(2.4529592 2.9443792 0)
(0.00011913973 2.9452423 0)
(-3.0499274e-05 2.9425688 0)
(0.00053361902 2.9446047 0)
(0.00031849645 0.0018740367 0)
(-0.00063506961 1.961546 0)
(-0.0005939387 3.9226844 0)
(-0.29298647 3.8951111 0)
(-874.28743 3.7556729 0)
(298.16594 742345.8 0)
(0.00076971481 0.25039499 0)
(0.0002972042 -2.2047017e-06 0)
(-2.9047792 0.010408771 0)
(842.28145 -2.2787807 0)
(0.041022193 -682.03593 0)
(436.0635 -870.64802 0)
(-0.00025339774 1.9613496 0)
(-2.452991 0.00035470851 0)
(-3.4329043 0.0002801251 0)
(3.4321682 -0.00021601884 0)
(2.4528725 0.00073598978 0)
(-6.6392824e-05 0.00089063514 0)
(-0.00015695766 1.9627232 0)
(-0.00029671061 1.9626988 0)
(-649.14524 -1302.0594 0)
(350.69256 -695.43446 0)
(0.023339543 -15.536577 0)
(0.004950598 -12.578184 0)
(0.54827044 -22.591249 0)
(0.26519797 1010.5924 0)
(-881.64542 -0.013209865 0)
(-0.00031970206 3.1413149e-06 0)
(0.00066512826 0.00049887086 0)
(-2.4071552 -2214.3146 0)
(-701.20124 -826202.44 0)
(392671.28 -786555.74 0)
(107.889 -217.96716 0)
(-3.4335438 0.00016793841 0)
(-3.432766 0.0002477316 0)
(3.4322485 -0.00021600719 0)
(2.4522251 5.4197417e-05 0)
(0.9808817 0.00010146323 0)
(0.91743839 0.98178349 0)
(-160.91154 -322.90226 0)
(-841380.59 -1688436.1 0)
(205876.16 -411169.99 0)
(90.043175 -2632.121 0)
(0.830771 -2467.6302 0)
(0.83077308 -2468.7941 0)
(-1.9187568 -2512.5105 0)
(-881.67271 -0.038565614 0)
(-0.00031895627 -6.5586332e-06 0)
(0.035461509 -0.075905726 0)
(205.42061 305956.24 0)
(135.84084 465886.97 0)
(-522.82609 751453.84 0)
(261.96132 14.002116 0)
(-2.5583504 -0.0024323984 0)
(-3.4328181 0.00015187817 0)
(3.4322567 -0.00021595288 0)
(2.4522608 -0.00031475525 0)
(0.065818258 0.0031303137 0)
(-389.55572 3.0731509 0)
(1.6020639 0.079163378 0)
(574.39648 616149.88 0)
(778.57918 -1565.3009 0)
(7052.9057 -5279305.1 0)
(1784.5615 -5295125.8 0)
(1797.6087 -5335000.3 0)
(-3594.7238 -5436592.1 0)
(0.0033998753 2.5430787 0)
(-6.3189304 -0.090332285 0)
(3266.5377 -3696.9696 0)
(0.69060133 549.83109 0)
(-0.82317437 522.61455 0)
(-0.072675514 651.13022 0)
(0.052469166 -0.98136567 0)
(-2.4529588 5.9397351e-05 0)
(-3.4329043 0.00018431336 0)
(3.4322003 -0.00021594375 0)
(2.4526721 -0.00058761565 0)
(-9.844402e-05 -0.00040410005 0)
(-0.076259541 -0.9807463 0)
(-0.00057408988 -0.98165094 0)
(-135.24986 871.74825 0)
(-326792.42 655115.43 0)
(958.60878 483424.98 0)
(100.31198 298808.82 0)
(410.77004 1286219.5 0)
(-3684.8836 5389952.1 0)
(0.0031907142 -3.054551 0)
(-470.68781 -941.77567 0)
(273076.98 546265.29 0)
(117.04352 239.10307 0)
(-0.98081681 0.00031358979 0)
(-0.00043750942 0.00027050096 0)
(-0.00071718817 -0.00011214491 0)
(-2.4533765 -0.00026282387 0)
(-3.4328402 8.7768136e-05 0)
(3.4321042 0.00032917508 0)
(2.4527793 -1.9644648 0)
(-0.00017807515 -1.9646796 0)
(-0.00037157066 -1.9620423 0)
(0.00010425273 -1.9642872 0)
(-0.00014674342 -0.0018096319 0)
(-541.03891 1083.2144 0)
(0.42018309 476.0238 0)
(1.1079181 380.28577 0)
(1.3032883 1013.8928 0)
(-1.9451773 2472.2782 0)
(-881.6684 -0.00531948 0)
(896.43732 0.010454256 0)
(468.51623 936.21014 0)
(-0.98124729 0.00013394727 0)
(-0.98119776 -1.6754916e-05 0)
(-0.0004322956 -0.00022290879 0)
(-0.00076649814 -0.00064203142 0)
(-2.454176 -1.9641962 0)
(-3.4326037 -0.0004736772 0)
(1.4708921 -0.00059774683 0)
(1.469601 -4.9011101 0)
(-0.00011291887 -4.9043059 0)
(-0.00041178845 -1.9651456 0)
(0.9793718 -4.9061332 0)
(0.98164775 -4.9118781 0)
(-1.4709045 -2.9446372 0)
(-1.4708609 -2.9407604 0)
(1.4701498 -2.9402999 0)
(-1.2465342 -9.3383959 0)
(0.76726517 31.012357 0)
(-718.09587 -0.0087375095 0)
(892.80235 0.026193784 0)
(1.6119774 1.3133996 0)
(0.37031741 -2.6996855 0)
(-0.98104531 0.00010930082 0)
(-0.00061276737 -0.00012036453 0)
(-0.98292842 -1.9649407 0)
(-2.4521891 -4.9020106 0)
(-1.4713762 -0.00093438683 0)
(0.0005491237 3.9204791 0)
(-0.00049192896 0.97877584 0)
(1.469571 -3.9240211 0)
(-0.00097953996 -5.8824555 0)
(-1.4720519 -7.8399978 0)
(1.9595932 -11.759539 0)
(1.9621739 -6.8641927 0)
(0.00019352486 -0.00066732303 0)
(1.4703959 2.9399448 0)
(-434.16979 -870.04544 0)
(0.80616189 -625.54088 0)
(-718.08601 -0.0026065688 0)
(892.80101 0.038262216 0)
(0.05111204 -625.976 0)
(467.27898 -934.32421 0)
(-0.98087695 1.9609039 0)
(-0.98158976 -0.00063374791 0)
(-2.4518922 -4.9008987 0)
(-1.4716863 -2.9405371 0)
(1.9598112 -4.9036129 0)
(1.9626218 -0.98459962 0)
(-2.4533709 -0.98544003 0)
(-2.451608 -5.8836924 0)
(-2.940692 -1.9614917 0)
(-2.9400899 0.97739037 0)
(2.4499579 0.00016839162 0)
(4.4102822 -0.97961415 0)
(3.432016 2.9406224 0)
(-332.79196 -666.10184 0)
(-251203.23 -501358.84 0)
(459.84026 -414106.55 0)
(-0.00032161274 -0.013588838 0)
(-0.00027042605 -0.10780237 0)
(-613.76007 -414328.66 0)
(273121.07 -545527.34 0)
(117.256 -235.14937 0)
(-3.4330567 0.00015860469 0)
(-3.4320808 0.00018330792 0)
(-2.4521168 -0.00085856596 0)
(0.48770967 -4.9025087 0)
(2.9401568 -11.768165 0)
(-3.4317488 -11.76801 0)
(0.00046152534 -6.8609543 0)
(3.4317683 -0.0028542549 0)
(-0.49045482 5.8825605 0)
(1.9625273 4.8999801 0)
(2.451385 2.9402958 0)
(-54.183524 -108.63488 0)
(-102808.68 -205958.9 0)
(1908.1403 3808.6119 0)
(-0.22688782 2516.963 0)
(-0.00032366713 -1.9187315e-06 0)
(0.00049095854 0.00012947355 0)
(-5.2652996 2515.9847 0)
(3176.9994 3689.3816 0)
(0.279292 -0.024819413 0)
(-1.9625361 0.00067246002 0)
(-2.4531402 2.9418668 0)
(-3.9238814 -0.00043866078 0)
(-2.9419101 -0.00211015 0)
(0.48993111 -7.8423907 0)
(-3.5228145e-05 -7.8427222 0)
(3.4307616 -0.98180812 0)
(3.4298901 -5.8834722 0)
(-0.49091935 -5.8836031 0)
(1.9623468 0.00030025189 0)
(2.452351 1.9619533 0)
(-730.99009 -1463.4044 0)
(-4236.6235 1711.9416 0)
(5.5638506 -1.4047759 0)
(-0.00183931 -1.0061921 0)
(-0.00031896915 1.1166363e-08 0)
(0.00017420082 5.7125594e-07 0)
(-2.4486883 -0.99652902 0)
(677.24796 -0.61277575 0)
(-0.75078201 0.98097219 0)
(-1.9625354 -0.00051490821 0)
(-2.4533829 -2.9413261 0)
(-3.923863 -0.00012723105 0)
(-2.4526812 -5.8831575 0)
(-6.0650061e-05 -4.9013333 0)
(0.0013156864 -4.8910185 0)
(0.00024467485 5.8793594 0)
(0.00024768925 -0.97956201 0)
(2.4505632 -0.97836917 0)
(5.8838524 3.8851751e-05 0)
(-183.6406 -371.84606 0)
(-917156.24 -1837484.9 0)
(731.67661 1470.1668 0)
(-0.079787042 -0.15858782 0)
(-0.00031908341 -3.3674106e-05 0)
(-0.0003189695 2.0055467e-08 0)
(-0.00031895664 2.0168616e-08 0)
(-0.00016648223 -4.0025029e-05 0)
(-0.65934451 -0.0023317191 0)
(120.73377 0.46490894 0)
(-3.6805079 0.0013040457 0)
(-3.4328081 0.97963338 0)
(-4.4141573 0.00024054831 0)
(-5.3916883 -0.97913974 0)
(-0.00049893585 -0.98032935 0)
(-19887.158 -158777.13 0)
(4.4268204 -6.8460075 0)
(196985.87 -1578502.8 0)
(-0.00012473659 0.97975227 0)
(3.4322806 -0.00015266988 0)
(-184.32323 375.14801 0)
(-923661.84 1850416.3 0)
(4617.827 -9243.9173 0)
(-1.2486351 2.4959993 0)
(-0.00035575714 7.3331981e-05 0)
(-0.0003189695 2.0055501e-08 0)
(0.0001830142 2.1373069e-06 0)
(-2.4949971 -0.010326771 0)
(691.00343 3.6362879 0)
(-0.6576453 -2.938306 0)
(-1.4722899 0.00056318593 0)
(-3.434415 3.9232367 0)
(-3.9234022 0.0008862561 0)
(-1.9613249 4.9039934 0)
(-119.16699 7.6109408 0)
(-2451077.8 -19563745 0)
(-0.068785171 -245.42239 0)
(0 -0 0)
(2.0110158 -1.2549178 0)
(5.3930627 0.0084654489 0)
(2.4527678 -2.9428554 0)
(-975.64046 1954.336 0)
(-732243.45 1465423.2 0)
(2793.9152 -5584.2155 0)
(-0.36220571 0.69335013 0)
(-0.00032279472 7.6051509e-06 0)
(0.0014794528 3.0749639e-05 0)
(-8.0708427 -0.13833461 0)
(5463.4027 -4196.3895 0)
(1.6127939 0.035031116 0)
(-1.4723861 -0.00029162454 0)
(-3.4348058 -3.921977 0)
(-3.9232772 0.0012086402 0)
(-45.494239 -359.20092 0)
(-154979.68 -1244793.9 0)
(-0 -0 0)
(-6235754.7 59992937 0)
(0 -0 0)
(1713464.4 -13730476 0)
(949.11601 -7585.8828 0)
(3.4330565 -2.9422274 0)
(-3.0686728 9.0952996 0)
(-1095.357 2195.5066 0)
(-274110.95 547479.81 0)
(473.03106 -944.6594 0)
(-0.046008372 0.091251947 0)
(0.051793745 0.10614152 0)
(-540.61871 -1080.9876 0)
(326646.82 652973.05 0)
(134.83086 270.61386 0)
(-2.4522351 0.00013260063 0)
(-3.4314525 0.00089194456 0)
(-137.38228 -0.093610673 0)
(-27316.102 -15.410353 0)
(-21110701 -14859.068 0)
(9429317.1 -2.530696e+09 0)
(0 -0 0)
(-1.0994495e+08 8.8101941e+08 0)
(-0.91493619 -2.8154018 0)
(2.4443687 -3.9375303 0)
(3.4323387 -3.9223317 0)
(2.452411 -1.9627539 0)
(-8.2857886 18.546291 0)
(-471.26461 939.8837 0)
(-827.42709 -0.040680196 0)
(2.8319149 8.3063297e-05 0)
(-2.9224995 -8.8909998e-05 0)
(852.61124 0.0081035721 0)
(534.74939 1068.0856 0)
(0.027867391 0.000188967 0)
(-1.4718552 0.00072717176 0)
(-3.4322577 6.8627969 0)
(-1.960672 3.9203053 0)
(1.4680964 3.9235825 0)
(-73.475441 -315801.77 0)
(0 0 0)
(19.595748 81365.519 0)
(4154.8069 -33301.279 0)
(-1.4699997 0.97991487 0)
(1.9596879 -0.00036119347 0)
(3.4305732 -0.98017693 0)
(2.4506154 -1.9608277 0)
(1.9615301 -3.9238563 0)
(0.79291618 -1.9596099 0)
(-675.30323 2.6599922 0)
(2.4285627 -0.0094665416 0)
(-2.9167153 0.011330077 0)
(849.67117 -3.3320067 0)
(4.5876574 10.583176 0)
(0.001257287 -1.2861118 0)
(-0.001136435 -1.3835754 0)
(-1.4728216 2.9449981 0)
(-3.4327819 6.8653236 0)
(-1.9590202 6.8607522 0)
(-15.705023 3.9110668 0)
(0 0 0)
(1.9641807 4.8365779 0)
(-0.049098774 4.8008879 0)
(-1.960967 7.8417468 0)
(1.4710442 10.780608 0)
(1.4712372 4.9012268 0)
(-0.00010861364 0.00047072092 0)
(0.97967557 -1.9594074 0)
(-3.5894402 -10.716083 0)
(-687.74263 2.6917267 0)
(2.4755924 -0.0095895387 0)
(-2.4587399 0.0094098017 0)
(683.54146 -2.6454228 0)
(-0.35322701 -323.36565 0)
(-0.22987182 -560.4727 0)
(-0.2107422 -625.02829 0)
(539.29984 -1075.9098 0)
(-0.0011390714 2.9446387 0)
(-0.00093565798 4.9061848 0)
(-0.00020950451 4.9039726 0)
(788.29516 3199031.3 0)
(-1.4694664 6.8637638 0)
(-0.0001611636 2.9421471 0)
(1.4697023 6.8670782 0)
(1.4718209 4.9096724 0)
(-0.98018343 1.9645532 0)
(-0.98024645 1.9603812 0)
(0.97987426 1.958983 0)
(-540.54885 -1084.6812 0)
(-690.04584 -0.0074004426 0)
(2.4803082 8.4483292e-05 0)
(-0.00031834233 -0.00051365483 0)
(-0.014828402 0.53800429 0)
(196.45774 -151813.62 0)
(411.9887 -311436.69 0)
(-680.47123 -413295.54 0)
(327239.41 -653661.46 0)
(135.29272 -823.13681 0)
(-0.2098965 -627.28566 0)
(631.05158 -1261.6251 0)
(-8.2623459e-05 0.00367791 0)
(-0.00093366479 4.9058144 0)
(-6.0938827e-06 4.9031463 0)
(0.00077787789 4.9059208 0)
(0.00064950487 1.9642793 0)
(-0.00047814171 1.9619929 0)
(-0.065878321 3.791806 0)
(-338.4336 -674.73689 0)
(-331605.16 -664992.94 0)
(545.95525 1094.7253 0)
(-0.051844069 -0.10527958 0)
(-0.00031898089 -2.7793081e-06 0)
(-0.00029572658 1.4828623e-05 0)
(-1.6678225 1291.6855 0)
(-2.973671 2254.4437 0)
(0.84355944 2514.1063 0)
(-2158.7686 4312.067 0)
(101.46805 -307318.71 0)
(-770.47837 -414069.33 0)
(401124.75 -802812.44 0)
(479.31609 -955.63347 0)
(2.9159794 -1.9071891 0)
(-0.00016517265 1.9642822 0)
(-0.00016813883 1.9642032 0)
(-0.00018868228 1.9620441 0)
(-0.13815584 1.6857139 0)
(-368.45239 -735.6353 0)
(-90060.062 -180572.02 0)
(2301.2748 4614.7181 0)
(-0.12049132 -0.209358 0)
(-0.00032106065 -4.1199125e-06 0)
(-0.00031898644 1.1114191e-08 0)
(-0.00031897537 5.470034e-08 0)
(0.0003924448 -0.55093707 0)
(-0.00012243284 -0.88861511 0)
(-0.0016123559 -1.007946 0)
(0.77481335 -1.5459999 0)
(-0.73146267 2220.3689 0)
(0.99659106 2517.6227 0)
(-2755.2428 5512.4639 0)
(166489.04 -333387.53 0)
(80.595418 -1206.7758 0)
(0.35108488 -1042.8204 0)
(0.35105804 -1042.8109 0)
(0.35102557 -1042.7921 0)
(-78.783606 -1203.9163 0)
(-164285.13 -328792.43 0)
(1055.2239 2114.5815 0)
(-1.0186079 -2.0413886 0)
(-0.00034900269 -5.9803388e-05 0)
(-0.00031896944 2.0055009e-08 0)
(-0.00031898645 2.0056045e-08 0)
(-0.00031897967 2.0055524e-08 0)
(-0.00031897644 -2.8559165e-05 0)
(-0.00031905327 -3.7304981e-05 0)
(-0.00031408005 0.0018535543 0)
(-0.00024810926 0.0017946261 0)
(-2.3858769e-05 -0.87752682 0)
(-0.00063801874 -1.0095065 0)
(1.0151232 -2.5919193 0)
(-1285.5991 2577.4396 0)
(438.0084 -1347593.7 0)
(450.01791 -1336515.2 0)
(450.01247 -1336489.5 0)
(449.99767 -1336446.4 0)
(463.81097 -1346136.8 0)
(1267.3586 2538.4236 0)
(-0.37738512 -1.3101219 0)
(-0.00049090585 -0.00034450008 0)
(-0.00031898306 2.0181295e-08 0)
(-0.0003189695 2.0055481e-08 0)
)
;

boundaryField
{
    west
    {
        type            calculated;
        value           nonuniform List<vector> 
40
(
(-0.00031898645 5.4987045e-11 0)
(-0.00031895064 -1.0881607e-09 0)
(-0.00031872214 5.1026658e-07 0)
(0.00074135035 -0.00012785608 0)
(0.11710107 -0.55530687 0)
(-0.69045102 4.9064704e-05 0)
(-0.6906546 -0.0001241406 0)
(-0.64338136 -0.00054089565 0)
(-472.26844 943.76398 0)
(0.21671442 -0.40067822 0)
(-0.0002723514 -9.291601e-05 0)
(-0.00031893905 -1.4523621e-08 0)
(-0.00031894608 -1.026689e-09 0)
(-0.00031869974 5.3180612e-07 0)
(0.00034059111 2.0635294e-06 0)
(0.00033936639 1.9068694e-08 0)
(0.00033890428 6.0101969e-07 0)
(0.00029912347 5.4092718e-07 0)
(0.00029719771 -2.2259959e-06 0)
(-0.00031970206 3.1212589e-06 0)
(-0.00031895508 -6.5786891e-06 0)
(-6.3189304 -0.090332601 0)
(-470.68781 -941.77567 0)
(-0.65036291 0.00040982428 0)
(-0.74901501 -2.120818e-05 0)
(-0.74841653 -9.6366866e-05 0)
(-0.00027041005 -0.1078024 0)
(0.00049090497 0.00012945248 0)
(0.00017419509 5.5011524e-07 0)
(-0.00031895659 1.1309941e-10 0)
(0.00018300775 2.116157e-06 0)
(0.0014794467 3.0728439e-05 0)
(0.05275738 0.10613983 0)
(-2.9216745 -8.9294954e-05 0)
(-2.9158902 0.011329933 0)
(-2.4587399 0.0094094724 0)
(-0.00031834284 -0.00051367488 0)
(-0.00031898088 -2.7993641e-06 0)
(-0.00031898644 -8.9418247e-09 0)
(-0.00031898645 2.9458786e-14 0)
)
;
    }
    east
    {
        type            calculated;
        value           nonuniform List<vector> 
40
(
(-0.00031896948 9.8266248e-09 0)
(-0.00031896656 2.9256785e-06 0)
(-0.00036005629 0.088673979 0)
(0.73919657 0.00026829521 0)
(0.68197448 0.0001227702 0)
(0.6819214 -5.4114402e-05 0)
(-0.00032156534 -0.01414138 0)
(-0.00032042703 4.4630836e-06 0)
(-0.00075821495 -1.2968315e-06 0)
(-0.00075409545 2.7976634e-08 0)
(-0.00031897049 -3.3736378e-10 0)
(-0.00032082261 3.6418612e-06 0)
(-0.04566703 0.090751207 0)
(2.8319023 5.8560926e-05 0)
(2.4285656 -0.0094662609 0)
(2.4623647 -0.010277422 0)
(5.1229246 -0.037353935 0)
(-0.00020578739 0.25039477 0)
(0.74505542 0.00070209874 0)
(0.73958129 -0.00060009018 0)
(0.0024244045 2.543079 0)
(0.0022152513 -3.0545512 0)
(0.73920343 0.00081077298 0)
(0.681806 0.00010557479 0)
(0.68192147 -5.4036657e-05 0)
(-0.00032161595 -0.013588857 0)
(-0.00032361327 -1.9387854e-06 0)
(-0.00031897001 -8.8891205e-09 0)
(-0.0003189695 -1.7421431e-14 0)
(-0.0003189695 1.7261091e-14 0)
(-0.00032279518 7.5850955e-06 0)
(-0.046008345 0.091251929 0)
(2.8319149 8.3362231e-05 0)
(2.4285627 -0.0094662484 0)
(2.4747532 -0.0095894307 0)
(2.4794691 8.4827287e-05 0)
(-0.052818621 -0.10527873 0)
(-0.00032106116 -4.139968e-06 0)
(-0.0003189695 -4.7283117e-13 0)
(-0.0003189695 -2.9429982e-15 0)
)
;
    }
    south
    {
        type            calculated;
        value           nonuniform List<vector> 
20
(
(-0.00031898645 5.4956283e-11 0)
(-0.0003189825 9.8658457e-09 0)
(-0.00031894278 -6.1879286e-06 0)
(-0.03247872 -0.25996618 0)
(-0.28086726 -966.82063 0)
(-0.28126426 -965.84633 0)
(-0.28193956 -966.1461 0)
(-0.28412589 -964.26529 0)
(1266.0304 -2531.7913 0)
(-2.8254445 -1454.6968 0)
(-0.54795295 1.0949244 0)
(0.00027112309 0.62077576 0)
(-0.00014995873 0.55366593 0)
(-4.609625e-05 0.87800505 0)
(-2.4134954e-05 0.87784925 0)
(-0.00061396107 0.45258997 0)
(-0.00051426508 0.30354105 0)
(-0.00013881305 0.55088554 0)
(-4.1905371e-05 0.87357968 0)
(-0.00031896869 9.8260787e-09 0)
)
;
    }
    north
    {
        type            calculated;
        value           nonuniform List<vector> 
20
(
(-0.00031898645 3.0839837e-14 0)
(-0.00031897967 -2.7765986e-13 0)
(-0.00031897644 -2.8580829e-05 0)
(-0.00031905327 -3.7326784e-05 0)
(-0.00031940093 -7.0602709e-05 0)
(-0.00025342113 -0.00012953347 0)
(-2.9604678e-05 -0.87937639 0)
(-0.00064370488 -1.0113571 0)
(1.015123 -2.5919193 0)
(-1285.599 2577.4397 0)
(-0.29653367 966.21091 0)
(-0.30282615 965.84819 0)
(-0.30278127 965.80496 0)
(-0.303535 966.17046 0)
(-0.30538492 963.72973 0)
(1267.3587 2538.4236 0)
(-0.37738523 -1.3101218 0)
(-0.00049090585 -0.00034452275 0)
(-0.00031898306 -1.4812995e-12 0)
(-0.0003189695 -4.6284995e-16 0)
)
;
    }
    front
    {
        type            empty;
    }
    back
    {
        type            empty;
    }
}


// ************************************************************************* //
