/*--------------------------------*- C++ -*----------------------------------*\
| =========                 |                                                 |
| \\      /  F ield         | OpenFOAM: The Open Source CFD Toolbox           |
|  \\    /   O peration     | Version:  2412                                  |
|   \\  /    A nd           | Website:  www.openfoam.com                      |
|    \\/     M anipulation  |                                                 |
\*---------------------------------------------------------------------------*/
FoamFile
{
    version     2.0;
    format      ascii;
    arch        "LSB;label=32;scalar=64";
    class       volVectorField;
    location    "1";
    object      U;
}
// * * * * * * * * * * * * * * * * * * * * * * * * * * * * * * * * * * * * * //

dimensions      [0 1 -1 0 0 0 0];

internalField   nonuniform List<vector> 
800
(
(-0.031898645 2.0111002e-06 0)
(-0.031898252 2.9823206e-06 0)
(-0.031895296 -0.00061560609 0)
(-3.2278283 -25.83611 0)
(4660.4538 15138564 0)
(4748.1036 15133156 0)
(4747.4122 15131090 0)
(4911.5481 15272710 0)
(11209.279 -22416.17 0)
(-34.689718 -17860.417 0)
(-53.78707 107.29393 0)
(0.027254222 61.003578 0)
(-0.014250824 54.38092 0)
(-0.004010717 86.225742 0)
(-0.0018517271 86.210385 0)
(-0.060554442 44.633412 0)
(-0.050783515 29.970922 0)
(-0.013691278 54.306769 0)
(-0.004132963 85.998794 0)
(-0.031896871 2.988211e-06 0)
(-0.031895042 1.8967344e-06 0)
(0.12997101 0.0058356396 0)
(-664.52655 -5.7605568 0)
(54910.188 -21859.686 0)
(0.19279963 104.5824 0)
(0.032846043 104.73847 0)
(0.032954593 105.09334 0)
(-7.9671682 121.67118 0)
(-13018783 26024690 0)
(18465.139 5189825.1 0)
(12203.254 -24396.353 0)
(-16.890767 -17668.928 0)
(-4.7875086 -15631.499 0)
(-7.0474392 -22620.378 0)
(-7.2213539 -22616.145 0)
(9.0318509 -13306.56 0)
(6.1786131 -9671.4049 0)
(-5.1574692 -15631.775 0)
(-7.2089977 -22608.684 0)
(-0.031902263 0.00029457516 0)
(-0.031872215 5.3032072e-05 0)
(3.2719491 104.75904 0)
(-8858.6518 -17703.031 0)
(12998387 26001406 0)
(7.9393 16.570706 0)
(7.5567261e-05 0.37785451 0)
(-7.5708254e-05 -0.19616958 0)
(-6.4800513e-05 -0.19616321 0)
(-32.509013 64.469354 0)
(-8.9192289 54.621478 0)
(-16067636 32131581 0)
(13851.991 4909264.5 0)
(3739.3582 12180378 0)
(9291.7161 29779874 0)
(9514.7106 29884979 0)
(-5633.1835 8277291.8 0)
(-2506.0485 3917697 0)
(3994.2422 12131239 0)
(9500.2337 29793990 0)
(-0.036052506 8.8798319 0)
(0.07412563 -0.012780955 0)
(-99.684655 -25788.14 0)
(42286.946 -31302.649 0)
(32.494712 64.442391 0)
(0.0018643773 -0.19615615 0)
(-0.098110092 -0.19619104 0)
(-0.098102919 -0.19618307 0)
(-4.3271233e-05 -0.19635552 0)
(-3.3916083e-05 -0.19632939 0)
(-8.5728101e-05 -0.00016450397 0)
(-36.644362 72.958183 0)
(0.034893408 36.084317 0)
(0.010273726 32.558953 0)
(0.01763159 55.702258 0)
(0.017370519 55.704941 0)
(-0.018055804 25.820256 0)
(0.08744503 16.105061 0)
(0.10938235 32.560957 0)
(-0.0080704521 55.572822 0)
(-72158.161 -2.4467203 0)
(11.678399 -55.38033 0)
(-6918.3713 9938535.2 0)
(32074405 64096774 0)
(13.749888 27.376509 0)
(-4.8037837e-05 -0.19614 0)
(-7.0830442e-05 -0.19618816 0)
(-0.0001737821 -0.19636681 0)
(-0.00014331649 -0.49034529 0)
(-7.3250252e-05 -0.4902345 0)
(-0.098101918 -0.49025917 0)
(-0.09803337 -0.4902282 0)
(-4.4375563e-05 -0.19641004 0)
(0.097883018 -0.49032982 0)
(0.098034588 -0.49052298 0)
(-0.14697998 -0.29423764 0)
(-0.07355553 -0.14707512 0)
(0.073544085 -0.14705643 0)
(-0.12434909 -0.93279467 0)
(0.078978901 -0.014406865 0)
(-56919.148 -0.6909788 0)
(57583.481 0.20825403 0)
(-0.038224575 63.208652 0)
(54.89554 109.8114 0)
(-2.4435083e-05 -8.4169108e-06 0)
(-5.8055621e-05 -1.8452493e-05 0)
(-0.09824547 -0.19638797 0)
(-0.24519129 -0.49020861 0)
(-0.073518866 -0.34324945 0)
(-5.5580475e-06 -0.14714984 0)
(-4.7505986e-05 -0.19620983 0)
(0.073516469 -0.19613066 0)
(-8.3597091e-05 -0.58830162 0)
(-0.073631887 -0.39213763 0)
(0.098012129 -0.58817498 0)
(0.098113518 -0.34322651 0)
(9.7768825e-06 -3.3324824e-05 0)
(0.073545873 0.14704543 0)
(-43.906294 -87.928397 0)
(0.081432337 -63.118543 0)
(-56917.515 -0.20661058 0)
(57583.254 0.6977272 0)
(0.05721425 -0.13156436 0)
(0.33982442 1.0713528 0)
(-4.9201012e-05 -1.8407928e-05 0)
(-0.098144965 -6.737156e-05 0)
(-0.24522975 -0.49019334 0)
(-0.073588831 -0.14706952 0)
(0.098058015 -0.24518142 0)
(0.073541752 0.14689547 0)
(-0.081738722 -8.9305218e-05 0)
(-0.098055056 -8.1831375e-05 0)
(-0.098067074 0.13059854 0)
(-0.098076735 0.032603952 0)
(0.081720685 1.2034505e-05 0)
(0.22062774 -0.04900594 0)
(0.17161783 0.14703848 0)
(-11.035255 -21.955951 0)
(-22683906 -45244237 0)
(11693.449 -10513928 0)
(-0.032160393 -1.4143199 0)
(74656.605 2.8438064 0)
(47.524168 -94.843189 0)
(-0.098108633 0.19614177 0)
(-0.098148081 2.3597101e-05 0)
(-0.24520994 1.8635823e-05 0)
(-0.1716755 7.5678605e-06 0)
(-0.12264001 -2.8907584e-05 0)
(0.11433339 -0.16348394 0)
(0.081702505 -0.16357061 0)
(-0.085805124 -0.17166049 0)
(0.085805307 0.024466351 0)
(0.016312848 0.19597646 0)
(-0.11438045 0.1960565 0)
(0.098134484 0.24503296 0)
(0.24519637 0.29410612 0)
(0.11401496 0.29421154 0)
(-18403.422 -1.330067 0)
(13825.449 27475.332 0)
(-1.2848861 26283.721 0)
(-0.03204661 0.00044829307 0)
(-11892.859 23766.254 0)
(25903778 -51772327 0)
(59.916032 -119.75818 0)
(-0.098109451 -3.0966022e-05 0)
(-0.098172223 4.9328027e-05 0)
(-0.24521227 0.29406971 0)
(-0.19618571 -3.1551111e-05 0)
(0.016300288 -6.8730956e-05 0)
(0.081660659 -0.39225934 0)
(0.012246188 -0.22071641 0)
(0.085763143 -0.22061293 0)
(0.016270613 -0.39216246 0)
(-0.11440084 -0.19606668 0)
(0.098101037 9.8128578e-06 0)
(0.24521707 0.19617594 0)
(0.098105602 0.00011005488 0)
(0.11451255 0.097714302 0)
(-62167.717 -397.68121 0)
(202.71815 -81.93445 0)
(-0.075801928 -0.00012773451 0)
(21.431261 -39.623737 0)
(-14362.657 28694.652 0)
(26379588 -52619816 0)
(33.333563 -66.545077 0)
(-0.098144542 -4.8011578e-05 0)
(-0.24526645 -0.29403806 0)
(-0.19619235 -1.1511072e-05 0)
(-0.081749626 -0.19612704 0)
(-2.3010444e-05 -0.39210598 0)
(2.4744359e-05 -0.35946551 0)
(1.525689e-05 2.9918514e-05 0)
(-2.7297852e-05 -0.22867458 0)
(0.081696112 -0.03264114 0)
(0.29419936 1.0040208e-06 0)
(0.24523312 0.19610533 0)
(0.098086424 0.19612208 0)
(-48.836779 -97.826666 0)
(-63934.267 4.0727276 0)
(204.04193 -0.022662231 0)
(-0.075390313 4.7119628e-06 0)
(-0.027232661 -0.0092887078 0)
(88.67152 -177.28517 0)
(-13428.233 26791.635 0)
(6737973.6 -13446997 0)
(5.0267861 -10.82244 0)
(-0.17169634 0.049001088 0)
(-0.22069705 1.2026797e-05 0)
(-0.17979121 -0.032652133 0)
(1.0233614e-07 -0.032686823 0)
(0.17975462 -0.03268958 0)
(0.2205978 0.048857323 0)
(3.0485151e-05 0.048957314 0)
(-2.1772953e-05 0.048991837 0)
(0.17162721 -2.4820351e-06 0)
(0.34322568 -6.6159216e-05 0)
(-12.007079 -24.185393 0)
(-4078608.7 -8202169.3 0)
(14703.971 29572.878 0)
(-5.4627909 -10.894889 0)
(-0.031896993 1.9718089e-06 0)
(-0.031893884 5.5317327e-07 0)
(0.13813425 -0.031768639 0)
(-393.63645 -128.69747 0)
(32792.642 16623.257 0)
(-0.035036518 -0.00062283112 0)
(-0.17166594 0.19610333 0)
(-0.19617813 4.2708712e-05 0)
(-0.098091988 0.24512585 0)
(-2.4568844e-06 0.19600022 0)
(8.2102898e-06 0.19603106 0)
(-2.5820157e-05 -0.24514114 0)
(-6.2534295e-06 -0.049071512 0)
(0.098063286 -0.049063618 0)
(0.26971121 -3.6524624e-05 0)
(0.34317697 -0.29411792 0)
(-24.216294 48.69499 0)
(-13939660 27969532 0)
(17808.987 -35677.834 0)
(-47.869334 92.960722 0)
(-0.032081557 0.00036618415 0)
(-0.031894593 1.9028655e-06 0)
(0.095881866 0.0017909108 0)
(-470.23606 -6.3753652 0)
(21551.691 -24926.342 0)
(-0.033143444 0.0021485522 0)
(-0.17169487 -0.19604834 0)
(-0.19619121 4.1008169e-05 0)
(-0.12262327 8.3393259e-05 0)
(0.04900171 0.29418239 0)
(-1.8834827e-06 0.29418479 0)
(0.098068397 0.0981831 0)
(0.098043191 0.2941813 0)
(-0.049050604 0.29418207 0)
(0.12259943 -7.3007831e-06 0)
(0.17164057 -0.14713146 0)
(0.24517671 -0.19618126 0)
(-109.40983 219.71667 0)
(-25693638 51420246 0)
(11857.543 -23727.206 0)
(-4.5608914 9.0635682 0)
(-0.03186991 5.5186014e-05 0)
(3.9622519 7.7809982 0)
(-10275.433 -20509.484 0)
(18076855 36073972 0)
(9.5992082 19.751114 0)
(-0.17167323 4.2775975e-05 0)
(-0.098133351 6.591658e-05 0)
(-0.024567702 0.19613948 0)
(0.14702782 0.39230614 0)
(-0.09804272 0.39235581 0)
(1.7230011e-05 0.1961681 0)
(0.098067236 9.1211019e-05 0)
(-0.049072783 -0.29407609 0)
(0.12258803 -0.196086 0)
(0.171637 -0.19613848 0)
(0.24517592 -0.19620757 0)
(0.098095249 -0.19624584 0)
(-47.506266 94.934753 0)
(-82485.284 -3.319267 0)
(234.95037 0.0048337389 0)
(-0.06239417 0.00021482246 0)
(-237.93191 -1.1148007 0)
(83506.139 335.6291 0)
(38.997639 77.717889 0)
(-0.14715022 7.5085305e-05 0)
(-0.17163642 0.34318136 0)
(-0.098102399 0.19610793 0)
(0.073511242 0.19616423 0)
(0.14703943 -0.097894718 0)
(-0.09810222 -0.097820249 0)
(-0.098100889 0.098167553 0)
(-0.14709977 0.098039177 0)
(-0.073549114 0.049030792 0)
(0.098068681 -1.5344003e-05 0)
(0.17160648 -0.049031092 0)
(0.24509806 -0.19611968 0)
(0.19610563 -0.39229056 0)
(0.079276574 -0.19595593 0)
(-62825.041 247.47463 0)
(203.37736 -0.79276539 0)
(-0.062516496 1.0091922e-05 0)
(-237.32012 -0.0067619123 0)
(81558.364 2.3683301 0)
(0.13667453 0.2214216 0)
(-6.8077505e-05 2.2720605e-05 0)
(-0.14715148 0.29427403 0)
(-0.17162217 0.34320629 0)
(-0.09807879 3.8049914e-05 0)
(1.5435994e-05 -0.14707595 0)
(-1.3714877e-05 0.049016233 0)
(0.098023568 0.2451428 0)
(-4.2049679e-05 0.24520769 0)
(-0.098080593 0.39220602 0)
(0.0735765 0.53920243 0)
(0.14715622 0.49023093 0)
(-1.086656e-05 4.7092751e-05 0)
(0.098032568 -0.1960896 0)
(0.067788006 -0.19609209 0)
(-63284.285 308.05516 0)
(205.94881 -0.8593056 0)
(-0.062562802 6.8036397e-05 0)
(-237.30654 0.15047161 0)
(81471.919 1.5593129 0)
(0.025782214 1.6850658e-05 0)
(-4.4769232e-05 2.3899447e-05 0)
(-9.7853055e-05 0.00012591538 0)
(-0.24516221 0.29422717 0)
(-0.17164637 3.5165325e-05 0)
(0.098080966 3.4677216e-07 0)
(0.098048141 0.34316654 0)
(5.6871519e-05 0.34325628 0)
(-1.5854478e-06 0.14716915 0)
(0.073481282 0.34332885 0)
(0.14703516 0.49046625 0)
(-0.097971092 0.19637974 0)
(-0.098075809 0.19612811 0)
(0.098066214 0.19608948 0)
(-3.7114831e-05 0.099087978 0)
(-29092.657 -35271.427 0)
(433.65829 -3.1616952 0)
(0.029903516 5.6204139e-05 0)
(-241.20184 0.1502153 0)
(83066.938 1.5712983 0)
(0.027158222 -2.2972594e-05 0)
(-3.9035508e-05 -2.883377e-05 0)
(-7.4133226e-05 1.9190208e-05 0)
(-0.2452494 0.00010123781 0)
(-0.17166566 1.5610177e-05 0)
(0.17162725 -3.5652172e-05 0)
(0.24508561 0.29418548 0)
(1.190434e-05 0.29428608 0)
(-3.0496283e-06 0.29422802 0)
(5.333574e-05 0.29431611 0)
(3.1841771e-05 0.00018735734 0)
(-6.3510401e-05 0.19616522 0)
(-5.9395307e-05 0.39227793 0)
(-0.029304864 0.38959377 0)
(-85157.725 365.81169 0)
(28922.453 72008430 0)
(0.077172539 25.104905 0)
(0.029710989 -0.00022040021 0)
(-240.25014 0.86089454 0)
(81026.981 -219.21737 0)
(0.0041299384 -68.664452 0)
(44.006117 -87.862981 0)
(-2.5338685e-05 0.19612653 0)
(-0.245257 3.5464762e-05 0)
(-0.17167048 1.4008316e-05 0)
(0.17163367 -1.0802532e-05 0)
(0.245173 7.3564696e-05 0)
(-6.6365147e-06 8.9026386e-05 0)
(-1.5692687e-05 0.19623382 0)
(-2.9666059e-05 0.19623679 0)
(-65.523748 -131.42793 0)
(35.417229 -70.233488 0)
(0.0023324347 -1.5526461 0)
(0.00049477321 -1.2570902 0)
(0.054817569 -2.2587345 0)
(0.026800603 102.12931 0)
(-72052.605 -1.0795782 0)
(-0.031970184 0.00031413127 0)
(0.066615549 0.049964132 0)
(-24.570226 -22601.87 0)
(-6900.5398 -8130679.8 0)
(5018472.9 -10052451 0)
(10.809395 -21.838123 0)
(-0.34331987 1.6792154e-05 0)
(-0.17166777 1.2388707e-05 0)
(0.17163768 -1.0801949e-05 0)
(0.24519244 5.419077e-06 0)
(0.098080963 1.0145577e-05 0)
(0.091722913 0.098155955 0)
(-16.124321 -32.356782 0)
(-8067509.7 -16189433 0)
(5764360.4 -11512416 0)
(9.1128697 -266.38528 0)
(0.08386651 -249.1078 0)
(0.083875702 -249.25199 0)
(-0.19373889 -253.69082 0)
(-72160.711 -3.1564117 0)
(-0.031896464 -0.00065588053 0)
(3.510659 -7.5146018 0)
(19951.36 29715825 0)
(1753.658 6014438.7 0)
(-4996.0961 7180849.9 0)
(19615.022 1048.4442 0)
(-0.25582924 -0.00024323433 0)
(-0.17166827 7.5951191e-06 0)
(0.17163809 -1.0799233e-05 0)
(0.24518989 -3.147088e-05 0)
(0.0065821145 0.0003130451 0)
(-31930.586 251.89596 0)
(118.5837 5.8596203 0)
(5481.0361 5879457.5 0)
(3299.4998 -6633.5064 0)
(105195.61 -78741976 0)
(26080.005 -77384222 0)
(20751.365 -61586561 0)
(-34559.274 -52266790 0)
(0.33888321 253.48184 0)
(-532.38882 -7.6107657 0)
(25207.488 -28529.08 0)
(0.069683194 55.479167 0)
(-0.082873734 52.614636 0)
(-0.0073155227 65.542817 0)
(0.0052462712 -0.098124495 0)
(-0.24525381 5.9387163e-06 0)
(-0.17167047 9.2170242e-06 0)
(0.17163527 -1.0798777e-05 0)
(0.245177 -5.8739951e-05 0)
(-9.8412643e-06 -4.0397125e-05 0)
(-0.0076244789 -0.098055658 0)
(-5.7398914e-05 -0.098147869 0)
(-13.658474 88.035221 0)
(-31052517 62250475 0)
(6807.1046 3432812.7 0)
(915.81539 2728026.3 0)
(3866.6626 12107448 0)
(-35431.003 51825629 0)
(0.31800713 -304.43622 0)
(-11861.29 -23732.66 0)
(25003941 50018076 0)
(11.739159 23.98141 0)
(-0.098113803 3.1369249e-05 0)
(-4.3764304e-05 2.7058357e-05 0)
(-7.1717055e-05 -1.1214215e-05 0)
(-0.24524741 -2.627272e-05 0)
(-0.17166727 4.3890525e-06 0)
(0.17163046 1.6461176e-05 0)
(0.24511568 -0.19631654 0)
(-1.7796604e-05 -0.19634758 0)
(-3.7153416e-05 -0.19618496 0)
(1.0421183e-05 -0.19635166 0)
(-1.4670427e-05 -0.00018091491 0)
(-54.774083 109.66323 0)
(0.042258105 47.874044 0)
(0.111437 38.250034 0)
(0.13133192 102.16963 0)
(-0.19643142 249.66008 0)
(-72160.697 -0.43537614 0)
(74560.686 0.86952703 0)
(47.422436 94.761638 0)
(-0.098119576 1.3394023e-05 0)
(-0.098124588 -1.6755738e-06 0)
(-4.3231679e-05 -2.2291972e-05 0)
(-7.6625371e-05 -6.4182667e-05 0)
(-0.24525525 -0.19628968 0)
(-0.17164702 -2.3686183e-05 0)
(0.073568049 -2.989687e-05 0)
(0.14699254 -0.49021923 0)
(-1.1288844e-05 -0.4902984 0)
(-4.1164717e-05 -0.19644714 0)
(0.097884419 -0.49034901 0)
(0.098037421 -0.49055057 0)
(-0.14697561 -0.29423383 0)
(-0.073561905 -0.14707573 0)
(0.07353897 -0.14707796 0)
(-0.12466129 -0.93389853 0)
(0.076720172 3.1009792 0)
(-56919.156 -0.69257002 0)
(72999.13 2.1417097 0)
(0.16123427 0.13136972 0)
(0.037031918 -0.26996984 0)
(-0.098128591 1.0932763e-05 0)
(-6.1276732e-05 -1.2036452e-05 0)
(-0.098232638 -0.19637372 0)
(-0.24518892 -0.4901411 0)
(-0.073555283 -4.6710752e-05 0)
(2.7455846e-05 0.19602153 0)
(-2.4602174e-05 0.048950185 0)
(0.073474947 -0.19619144 0)
(-9.7939606e-05 -0.58815913 0)
(-0.073627872 -0.3921345 0)
(0.098012128 -0.58817181 0)
(0.098113517 -0.34322651 0)
(9.6789715e-06 -3.337556e-05 0)
(0.073547427 0.14705249 0)
(-43.935095 -88.04281 0)
(0.081320359 -63.100488 0)
(-56917.514 -0.20660396 0)
(72998.907 3.1284686 0)
(0.0051562765 -63.149609 0)
(47.288215 -94.552773 0)
(-0.098104509 0.196124 0)
(-0.098151757 -6.337013e-05 0)
(-0.24523136 -0.4901741 0)
(-0.073610482 -0.14707914 0)
(0.097974949 -0.24514159 0)
(0.098043344 -0.049185962 0)
(-0.12257687 -0.049235181 0)
(-0.081711592 -0.19610226 0)
(-0.098041492 -0.065395348 0)
(-0.098056683 0.032597526 0)
(0.081720685 5.6168632e-06 0)
(0.22062771 -0.049005941 0)
(0.17161382 0.14704227 0)
(-33.666266 -67.384924 0)
(-22972909 -45850013 0)
(11680.74 -10519025 0)
(-0.032165207 -1.35905 0)
(-0.027082327 -10.796072 0)
(-15335.641 -10352573 0)
(24947165 -49829040 0)
(11.756221 -23.576347 0)
(-0.34327101 1.5858868e-05 0)
(-0.17167559 9.1692179e-06 0)
(-0.1226359 -4.2938823e-05 0)
(0.016261109 -0.16345837 0)
(0.097976409 -0.39215683 0)
(-0.11435986 -0.39215808 0)
(1.1540539e-05 -0.17155961 0)
(0.11437638 -9.5128613e-05 0)
(-0.016344354 0.19603569 0)
(0.098133583 0.24501703 0)
(0.245204 0.29410814 0)
(-5.4284626 -10.883758 0)
(-7285229.8 -14594662 0)
(12843.416 25635.215 0)
(-2.3684174 26273.86 0)
(-0.032365278 -0.00019186464 0)
(0.049087179 0.012945068 0)
(-53.978195 25793.084 0)
(24537.968 28495.419 0)
(0.02792901 -0.0024819244 0)
(-0.19624396 6.7242697e-05 0)
(-0.24521781 0.29407131 0)
(-0.19619167 -2.1932771e-05 0)
(-0.098067679 -7.034121e-05 0)
(0.012250831 -0.19610064 0)
(-8.8088724e-07 -0.19610893 0)
(0.085800063 -0.024554081 0)
(0.11431847 -0.19609652 0)
(-0.016359835 -0.19607044 0)
(0.098100513 1.5010019e-05 0)
(0.24520127 0.19616826 0)
(-73.824336 -147.79251 0)
(-41894.997 16928.997 0)
(461.5709 -116.53866 0)
(-0.18102367 -99.02876 0)
(-0.03189689 1.1166354e-06 0)
(0.017415485 5.7110518e-05 0)
(-202.17152 -82.276613 0)
(62678.34 -56.711528 0)
(-0.075085448 0.098106689 0)
(-0.19624391 -5.1488295e-05 0)
(-0.24526611 -0.29404607 0)
(-0.19619315 -6.3615527e-06 0)
(-0.08175872 -0.19611167 0)
(-2.0222141e-06 -0.16342185 0)
(4.386625e-05 -0.16307126 0)
(8.156774e-06 0.19600137 0)
(8.2585357e-06 -0.032660875 0)
(0.081712153 -0.032622971 0)
(0.2941961 1.9426105e-06 0)
(-18.401252 -37.259915 0)
(-8177298.8 -16382883 0)
(20665.14 41522.718 0)
(-7.9642135 -15.82998 0)
(-0.031904397 -0.0033669945 0)
(-0.03189695 2.0055467e-06 0)
(-0.031895642 2.0168602e-06 0)
(-0.016642418 -0.0040011075 0)
(-58.890493 -0.20826151 0)
(7601.0433 29.269302 0)
(-0.368031 0.00013039756 0)
(-0.17169724 0.04899789 0)
(-0.22069706 1.2026827e-05 0)
(-0.17980083 -0.032652135 0)
(-1.6641258e-05 -0.032697416 0)
(-659.6457 -5266.5469 0)
(0.21847362 -0.33786599 0)
(9750.7172 -78135.219 0)
(-6.2373645e-06 0.048991814 0)
(0.17162658 -7.6340523e-06 0)
(-18.466481 37.584322 0)
(-8254073.9 16535784 0)
(24389.735 -48823.114 0)
(-121.04992 241.97662 0)
(-0.035572106 0.0073324545 0)
(-0.03189695 2.0055501e-06 0)
(0.018296563 0.00021367398 0)
(-208.34263 -0.86232827 0)
(63868.312 336.09612 0)
(-0.06577273 -0.29386724 0)
(-0.14721458 5.6313079e-05 0)
(-0.17166814 0.19610174 0)
(-0.19617733 4.4314437e-05 0)
(-0.098080673 0.24523575 0)
(-5.9552548 0.38034938 0)
(-16351931 -1.3051606e+08 0)
(-0.0034363822 -12.260857 0)
(0 -0 0)
(0.1004735 -0.06269766 0)
(0.26966064 0.00042328423 0)
(0.24513955 -0.29412089 0)
(-98.927269 198.16431 0)
(-96206811 1.9253664e+08 0)
(16690.376 -33359.157 0)
(-35.811408 68.551775 0)
(-0.032278734 0.00076049769 0)
(0.14789839 0.0030739893 0)
(-674.19165 -11.555675 0)
(40470.417 -31084.957 0)
(0.16134873 0.0035046177 0)
(-0.14721688 -2.9158149e-05 0)
(-0.17169608 -0.19604838 0)
(-0.1961783 6.0436456e-05 0)
(-2.2748268 -17.960953 0)
(-17684.836 -142044.27 0)
(-0 -0 0)
(-2274524.8 21882744 0)
(0 -0 0)
(207524.87 -1662955.6 0)
(47.44994 -379.2473 0)
(0.17164037 -0.1471007 0)
(-0.30676846 0.90923706 0)
(-111.57984 223.64788 0)
(-26144582 52218385 0)
(11897.807 -23760.332 0)
(-4.5949512 9.1135206 0)
(5.1721337 10.599313 0)
(-13123.756 -26241.447 0)
(31517079 63003224 0)
(13.523617 27.142734 0)
(-0.24518638 1.3258056e-05 0)
(-0.17166766 4.4621931e-05 0)
(-6.8702404 -0.0046813012 0)
(-1403.5927 -0.79183548 0)
(-2.7867724e+09 -1961509.5 0)
(108999.61 -29253960 0)
(0 -0 0)
(-3932774.2 31514411 0)
(-0.091558611 -0.28174017 0)
(0.12222982 -0.19689485 0)
(0.17163381 -0.19613587 0)
(0.24516313 -0.19621299 0)
(-0.82798102 1.853291 0)
(-47.691455 95.115185 0)
(-82491.407 -4.0556644 0)
(234.95142 0.0068913931 0)
(-241.78636 -0.0073557667 0)
(85251.486 0.81026561 0)
(54.172701 108.20224 0)
(0.0027865065 1.8895123e-05 0)
(-0.14716026 7.2704698e-05 0)
(-0.17163604 0.34318616 0)
(-0.098079293 0.19610663 0)
(0.073421033 0.19622246 0)
(-7.3433425 -31562.119 0)
(0 0 0)
(1.9615979 8144.9523 0)
(415.56767 -3330.8251 0)
(-0.073545542 0.049026112 0)
(0.098068619 -1.8075197e-05 0)
(0.1716065 -0.049031086 0)
(0.24509163 -0.19610684 0)
(0.19610547 -0.39229053 0)
(0.079286265 -0.19594776 0)
(-62830.895 247.48836 0)
(203.37712 -0.79276435 0)
(-241.31906 0.93741192 0)
(83075.654 -325.78326 0)
(0.45899398 1.0588441 0)
(0.00012573731 -0.12861999 0)
(-0.00011364029 -0.13835362 0)
(-0.14716004 0.29425562 0)
(-0.1716286 0.3432452 0)
(-0.097964611 0.34308524 0)
(-0.7855734 0.19563359 0)
(0 0 0)
(0.098222285 0.24186152 0)
(-0.0024545418 0.24000558 0)
(-0.098080946 0.39221768 0)
(0.073576579 0.539209 0)
(0.14715622 0.49023093 0)
(-1.086536e-05 4.7089407e-05 0)
(0.098032505 -0.19607064 0)
(-0.35907649 -1.0720038 0)
(-64141.436 251.04045 0)
(206.97218 -0.80173445 0)
(-205.70293 0.78724218 0)
(63594.93 -246.1233 0)
(-0.035579408 -32.57157 0)
(-0.023194805 -56.553497 0)
(-0.021257825 -63.047372 0)
(54.594324 -108.91634 0)
(-0.0001138305 0.29426574 0)
(-9.3505853e-05 0.49030416 0)
(-2.0941238e-05 0.4901816 0)
(76.273149 309528.97 0)
(-0.07347638 0.34320249 0)
(-8.0588159e-06 0.14711896 0)
(0.073477019 0.34331608 0)
(0.14703434 0.4904744 0)
(-0.097977514 0.19637348 0)
(-0.098072735 0.19613429 0)
(0.098060923 0.19604523 0)
(-54.76102 -109.88507 0)
(-65842.012 -0.70612704 0)
(207.35768 0.0070629363 0)
(-0.031834113 -0.05136529 0)
(-1.4737026 53.468896 0)
(15669.824 -12108928 0)
(40326.369 -30484114 0)
(-16418.413 -9971997 0)
(31775409 -63471451 0)
(13.688432 -83.282032 0)
(-0.021161487 -63.242108 0)
(63.91706 -127.7857 0)
(-8.2661377e-06 0.00036795979 0)
(-9.3320901e-05 0.49034196 0)
(-6.0932859e-07 0.49026661 0)
(7.7749663e-05 0.49035163 0)
(6.4931361e-05 0.19637009 0)
(-4.7814163e-05 0.19619926 0)
(-0.0065881828 0.37920079 0)
(-34.24308 -68.270612 0)
(-32699794 -65575374 0)
(13220.014 26508.187 0)
(-5.177159 -10.51324 0)
(-0.031898068 -0.00027793063 0)
(-0.029572202 0.0014828394 0)
(-20.186357 15633.812 0)
(-30.104803 22823.501 0)
(8.8097943 26256.312 0)
(-16033.47 32026.312 0)
(10063.118 -30478406 0)
(-17814.097 -9573625.3 0)
(41776370 -83611369 0)
(48.600119 -96.896183 0)
(0.29144836 -0.19062107 0)
(-1.6508951e-05 0.19632935 0)
(-1.6806233e-05 0.19633095 0)
(-1.8865192e-05 0.19617284 0)
(-0.013813278 0.16854325 0)
(-37.297025 -74.465545 0)
(-6290513 -12612590 0)
(14627.222 29331.789 0)
(-11.912429 -20.698273 0)
(-0.03210532 -0.00041198169 0)
(-0.031898644 1.1114191e-06 0)
(-0.031897534 5.4700334e-06 0)
(0.038681381 -54.303195 0)
(-0.012047684 -87.441849 0)
(-0.15877386 -99.255683 0)
(75.980128 -151.6046 0)
(-7.4634714 22655.51 0)
(10.404487 26284.175 0)
(-16408.096 32827.973 0)
(13590173 -27213769 0)
(8.1436129 -121.93639 0)
(0.03538258 -105.09617 0)
(0.035379143 -105.09304 0)
(0.035376608 -105.09333 0)
(-7.9604013 -121.64532 0)
(-13331896 -26681822 0)
(8566.0988 17165.754 0)
(-98.947854 -198.30105 0)
(-0.034890312 -0.0059786326 0)
(-0.031896944 2.0055009e-06 0)
(-0.031898645 2.0056045e-06 0)
(-0.031897967 2.0055524e-06 0)
(-0.031894053 -0.002855595 0)
(-0.031901216 -0.0037300174 0)
(-0.031391873 0.18526023 0)
(-0.024797739 0.17936722 0)
(-0.0023480313 -86.360718 0)
(-0.062799834 -99.365171 0)
(98.596624 -251.74728 0)
(-11284.356 22623.496 0)
(4970.093 -15291182 0)
(5095.032 -15131815 0)
(5094.9994 -15131611 0)
(5094.821 -15131089 0)
(5264.3123 -15278821 0)
(11208.971 22450.724 0)
(-36.797387 -127.745 0)
(-0.049078011 -0.034441185 0)
(-0.031898306 2.0181295e-06 0)
(-0.03189695 2.0055481e-06 0)
)
;

boundaryField
{
    west
    {
        type            slip;
    }
    east
    {
        type            slip;
    }
    south
    {
        type            slip;
    }
    north
    {
        type            slip;
    }
    front
    {
        type            empty;
    }
    back
    {
        type            empty;
    }
}


// ************************************************************************* //
